data_23

_citation_title "Framework silica structures generated using simulated annealing with a potential energy function based on an H6Si2O7 molecule"
_citation_author_name "M.B.jr. Boisen, G.V. Gibbs, and M.S.T. Bukowinski"
_citation_journal_abbrev "Physics and Chemistry of Minerals"
_citation_journal_volume "21"
_citation_page_first "269"
_citation_page_last "284"
_citation_year "1994"
_citation_special_details "https://doi.org/10.1007/BF00202091"

_cell_length_a                   4.1605
_cell_length_b                   4.1294
_cell_length_c                   7.4211
_cell_angle_alpha                90.0000
_cell_angle_beta                 101.3752
_cell_angle_gamma                90.0000
_cell_formula_units_Z            4

_symmetry_space_group_name_Hall  'P 2y'
_symmetry_Int_Tables_number      3
_symmetry_cell_setting           monoclinic

loop_
_atom_site_label
_atom_site_type_symbol
_atom_site_fract_x
_atom_site_fract_y
_atom_site_fract_z
Si1 Si  0.18244 0.00000 0.69651
Si2 Si  0.38098 0.58564 0.17797
O1  O   0.02399 0.75200 0.18927
O2  O   0.50000 0.73859 0.00000
O3  O   0.38562 0.71473 0.64074
O4  O   0.00000 0.15907 0.50000
O5  O   0.48963 0.20196 0.18802

