data_20

_citation_title "Framework silica structures generated using simulated annealing with a potential energy function based on an H6Si2O7 molecule"
_citation_author_name "M.B.jr. Boisen, G.V. Gibbs, and M.S.T. Bukowinski"
_citation_journal_abbrev "Physics and Chemistry of Minerals"
_citation_journal_volume "21"
_citation_page_first "269"
_citation_page_last "284"
_citation_year "1994"
_citation_special_details "https://doi.org/10.1007/BF00202091"

_cell_length_a                   5.4515
_cell_length_b                   5.3227
_cell_length_c                   5.8091
_cell_angle_alpha                77.9812
_cell_angle_beta                 82.2353
_cell_angle_gamma                54.5766
_cell_formula_units_Z            4

_symmetry_space_group_name_Hall  'P 1'
_symmetry_Int_Tables_number      1
_symmetry_cell_setting           triclinic

loop_
_atom_site_label
_atom_site_type_symbol
_atom_site_fract_x
_atom_site_fract_y
_atom_site_fract_z
Si1 Si  0.63119 0.15529 0.92211
Si2 Si  0.74028 0.53694 0.09612
Si3 Si  0.07709 0.98438 0.51099
Si4 Si  0.67431 0.80691 0.61642
O1  O   0.62734 0.88862 0.11558
O2  O   0.93048 0.81599 0.44260
O3  O   0.95278 0.06157 0.78337
O4  O   0.44530 0.75325 0.51403
O5  O   0.97640 0.28860 0.30715
O6  O   0.46678 0.14977 0.71234
O7  O   0.87702 0.52473 0.83219
O8  O   0.49365 0.46743 0.04826

