data_24

_citation_title "Framework silica structures generated using simulated annealing with a potential energy function based on an H6Si2O7 molecule"
_citation_author_name "M.B.jr. Boisen, G.V. Gibbs, and M.S.T. Bukowinski"
_citation_journal_abbrev "Physics and Chemistry of Minerals"
_citation_journal_volume "21"
_citation_page_first "269"
_citation_page_last "284"
_citation_year "1994"
_citation_special_details "https://doi.org/10.1007/BF00202091"

_cell_length_a                   4.6409
_cell_length_b                   5.2953
_cell_length_c                   6.7956
_cell_angle_alpha                111.5060
_cell_angle_beta                 93.9553
_cell_angle_gamma                90.7337
_cell_formula_units_Z            4

_symmetry_space_group_name_Hall  'P 1'
_symmetry_Int_Tables_number      1
_symmetry_cell_setting           triclinic

loop_
_atom_site_label
_atom_site_type_symbol
_atom_site_fract_x
_atom_site_fract_y
_atom_site_fract_z
Si1 Si  0.38321 0.12156 0.91206
Si2 Si  0.98484 0.05842 0.20981
Si3 Si  0.55103 0.07841 0.51208
Si4 Si  0.85250 0.45631 0.90853
O1  O   0.25629 0.11061 0.38392
O2  O   0.23864 0.95996 0.04677
O3  O   0.46346 0.92752 0.67308
O4  O   0.80431 0.93313 0.35555
O5  O   0.17541 0.35115 0.88674
O6  O   0.84740 0.77974 0.03350
O7  O   0.67863 0.29388 0.02995
O8  O   0.68733 0.37481 0.67126

