data_14

_citation_title "Framework silica structures generated using simulated annealing with a potential energy function based on an H6Si2O7 molecule"
_citation_author_name "M.B.jr. Boisen, G.V. Gibbs, and M.S.T. Bukowinski"
_citation_journal_abbrev "Physics and Chemistry of Minerals"
_citation_journal_volume "21"
_citation_page_first "269"
_citation_page_last "284"
_citation_year "1994"
_citation_special_details "https://doi.org/10.1007/BF00202091"

_cell_length_a                   5.8657
_cell_length_b                   5.1519
_cell_length_c                   5.3377
_cell_angle_alpha                92.6936
_cell_angle_beta                 90.7338
_cell_angle_gamma                90.0688
_cell_formula_units_Z            4

_symmetry_space_group_name_Hall  'P 1'
_symmetry_Int_Tables_number      1
_symmetry_cell_setting           triclinic

loop_
_atom_site_label
_atom_site_type_symbol
_atom_site_fract_x
_atom_site_fract_y
_atom_site_fract_z
Si1 Si  0.09993 0.21417 0.23644
Si2 Si  0.84312 0.85110 0.49421
Si3 Si  0.10030 0.47770 0.74039
Si4 Si  0.53953 0.35064 0.49265
O1  O   0.00245 0.33899 0.98339
O2  O   0.68637 0.59987 0.40748
O3  O   0.99205 0.35273 0.48362
O4  O   0.37609 0.24120 0.26115
O5  O   0.37645 0.45195 0.72274
O6  O   0.00933 0.77384 0.72822
O7  O   0.00859 0.91962 0.26120
O8  O   0.69721 0.10951 0.57922
