data_15

_citation_title "Framework silica structures generated using simulated annealing with a potential energy function based on an H6Si2O7 molecule"
_citation_author_name "M.B.jr. Boisen, G.V. Gibbs, and M.S.T. Bukowinski"
_citation_journal_abbrev "Physics and Chemistry of Minerals"
_citation_journal_volume "21"
_citation_page_first "269"
_citation_page_last "284"
_citation_year "1994"
_citation_special_details "https://doi.org/10.1007/BF00202091"

_cell_length_a                   5.0980
_cell_length_b                   5.2954
_cell_length_c                   6.9599
_cell_angle_alpha                110.9196
_cell_angle_beta                 107.5582
_cell_angle_gamma                83.9309
_cell_formula_units_Z            4

_symmetry_space_group_name_Hall  'P 1'
_symmetry_Int_Tables_number      1
_symmetry_cell_setting           triclinic

loop_
_atom_site_label
_atom_site_type_symbol
_atom_site_fract_x
_atom_site_fract_y
_atom_site_fract_z
Si1 Si  0.13461 0.29869 0.23439
Si2 Si  0.61791 0.28429 0.59542
Si3 Si  0.55239 0.36908 0.04434
Si4 Si  0.82673 0.72167 0.45675
O1  O   0.10729 0.61244 0.38526
O2  O   0.84186 0.04196 0.59954
O3  O   0.26716 0.26269 0.04211
O4  O   0.59523 0.66732 0.22804
O5  O   0.81718 0.18433 0.12257
O6  O   0.34158 0.15975 0.39651
O7  O   0.75255 0.53776 0.57710
O8  O   0.53106 0.39156 0.81529

