data_Tellurium

_citation_title "Crystal Structure of the High-Pressure Phase of Tellurium"
_citation_author_name "K. Aoki, O. Shimomura, and S. Minomura"
_citation_journal_abbrev "Journal of the Physical Society of Japan"
_citation_journal_volume "48(2)"
_citation_page_first "551"
_citation_page_last "556"
_citation_year "1980"
_citation_special_details "https://doi.org/10.1143/jpsj.48.551"

_cell_length_a                   3.104
_cell_length_b                   7.513
_cell_length_c                   4.76
_cell_angle_alpha                90
_cell_angle_beta                 92.71
_cell_angle_gamma                90
_cell_formula_units_Z            4

_symmetry_space_group_name_Hall  'P 2yb'
_symmetry_Int_Tables_number      4
_symmetry_cell_setting           monoclinic

loop_
_atom_site_label
_atom_site_type_symbol
_atom_site_fract_x
_atom_site_fract_y
_atom_site_fract_z
Te1 Te  0.25 0.23 0.48
Te2 Te  0.23 0.00 0.02
