data_8

_citation_title "Framework silica structures generated using simulated annealing with a potential energy function based on an H6Si2O7 molecule"
_citation_author_name "M.B.jr. Boisen, G.V. Gibbs, and M.S.T. Bukowinski"
_citation_journal_abbrev "Physics and Chemistry of Minerals"
_citation_journal_volume "21"
_citation_page_first "269"
_citation_page_last "284"
_citation_year "1994"
_citation_special_details "https://doi.org/10.1007/BF00202091"

_cell_length_a                   8.8664
_cell_length_b                   4.7482
_cell_length_c                   8.7918
_cell_angle_alpha                90.0000
_cell_angle_beta                 115.4133
_cell_angle_gamma                90.0000
_cell_formula_units_Z            8

_symmetry_space_group_name_Hall  '-C 2yc'
_symmetry_Int_Tables_number      15
_symmetry_cell_setting           monoclinic

loop_
_atom_site_label
_atom_site_type_symbol
_atom_site_fract_x
_atom_site_fract_y
_atom_site_fract_z
Si1 Si  0.81229 0.12825 0.18687
O1  O   0.25000 0.25000 0.50000
O2  O   0.18810 0.62173 0.68770
O3  O   0.00000 0.00488 0.25000
