data_1

_citation_title "Framework silica structures generated using simulated annealing with a potential energy function based on an H6Si2O7 molecule"
_citation_author_name "M.B.jr. Boisen, G.V. Gibbs, and M.S.T. Bukowinski"
_citation_journal_abbrev "Physics and Chemistry of Minerals"
_citation_journal_volume "21"
_citation_page_first "269"
_citation_page_last "284"
_citation_year "1994"
_citation_special_details "https://doi.org/10.1007/BF00202091"

_cell_length_a                  6.310
_cell_length_b                  6.310
_cell_length_c                  6.310
_cell_angle_alpha               90.0
_cell_angle_beta                90.0
_cell_angle_gamma               90.

_symmetry_space_group_name_H-M     'Pa-3'
_symmetry_Int_Tables_number         205

loop_
_atom_site_label
_atom_site_type_symbol
_atom_site_fract_x
_atom_site_fract_y
_atom_site_fract_z
   Cu1    Cu     0.6294    0.6294    0.6294
   Cl1    Cl     0.1540    0.1540    0.1540
