data_1

_citation_title "Framework silica structures generated using simulated annealing with a potential energy function based on an H6Si2O7 molecule"
_citation_author_name "M.B.jr. Boisen, G.V. Gibbs, and M.S.T. Bukowinski"
_citation_journal_abbrev "Physics and Chemistry of Minerals"
_citation_journal_volume "21"
_citation_page_first "269"
_citation_page_last "284"
_citation_year "1994"
_citation_special_details "https://doi.org/10.1007/BF00202091"

_cell_length_a                   4.7082
_cell_length_b                   5.5282
_cell_length_c                   5.0064
_cell_angle_alpha                90.0000
_cell_angle_beta                 107.8346
_cell_angle_gamma                90.0000
_cell_formula_units_Z            4

_symmetry_space_group_name_Hall  'P -2y'
_symmetry_Int_Tables_number      6
_symmetry_cell_setting           monoclinic

loop_
_atom_site_label
_atom_site_type_symbol
_atom_site_fract_x
_atom_site_fract_y
_atom_site_fract_z
Si1 Si  0.00000 0.50000 0.00000
Si2 Si  0.53662 0.50000 0.53762
Si3 Si  0.95079 0.00000 0.21653
Si4 Si  0.54481 0.00000 0.55830
O1  O   0.30313 0.00000 0.25680
O2  O   0.46696 0.74682 0.68687
O3  O   0.90747 0.50000 0.65132
O4  O   0.82996 0.25443 0.05792
O5  O   0.87559 0.00000 0.51469
O6  O   0.35985 0.50000 0.19218

