data_CuCL-IV

_citation_title "High-pressure polymorphism of the copper(I) halides: A neutron-diffraction study to ~10 GPa"
_citation_author_name "S. Hull and D. A. Keen"
_citation_journal_abbrev "Phys. Rev. B "
_citation_journal_volume "50"
_citation_page_first "5868"
_citation_year "1994"
_citation_special_details "https://doi.org/10.1103/PhysRevB.50.5868"

_cell_length_a                  6.310
_cell_length_b                  6.310
_cell_length_c                  6.310
_cell_angle_alpha               90.0
_cell_angle_beta                90.0
_cell_angle_gamma               90.0

_symmetry_space_group_name_H-M     'Pa-3'
_symmetry_Int_Tables_number         205

loop_
_atom_site_label
_atom_site_type_symbol
_atom_site_fract_x
_atom_site_fract_y
_atom_site_fract_z
Cu1    Cu     0.6294    0.6294    0.6294
Cl1    Cl     0.1540    0.1540    0.1540
