data_1

_citation_title "Framework silica structures generated using simulated annealing with a potential energy function based on an H6Si2O7 molecule"
_citation_author_name "M.B.jr. Boisen, G.V. Gibbs, and M.S.T. Bukowinski"
_citation_journal_abbrev "Physics and Chemistry of Minerals"
_citation_journal_volume "21"
_citation_page_first "269"
_citation_page_last "284"
_citation_year "1994"
_citation_special_details "https://doi.org/10.1007/BF00202091"

_cell_length_a                   6.6395
_cell_length_b                   8.0488
_cell_length_c                   5.4184
_cell_angle_alpha                90.0000
_cell_angle_beta                 99.9967
_cell_angle_gamma                90.0000
_cell_formula_units_Z            8

_symmetry_space_group_name_H-M   'C 1 c 1'
_symmetry_Int_Tables_number      9
_symmetry_cell_setting           monoclinic

loop_
_atom_site_label
_atom_site_type_symbol
_atom_site_fract_x
_atom_site_fract_y
_atom_site_fract_z
Si1 Si 0.00000 0.03951 0.50000
Si2 Si 0.04928 0.41410 0.41569
O1  O  0.29789 0.58048 0.97139
O2  O  0.12542 0.01394 0.78199
O3  O  0.47304 0.96257 0.11972
O4  O  0.44951 0.73454 0.46074

