data_22

_citation_title "Framework silica structures generated using simulated annealing with a potential energy function based on an H6Si2O7 molecule"
_citation_author_name "M.B.jr. Boisen, G.V. Gibbs, and M.S.T. Bukowinski"
_citation_journal_abbrev "Physics and Chemistry of Minerals"
_citation_journal_volume "21"
_citation_page_first "269"
_citation_page_last "284"
_citation_year "1994"
_citation_special_details "https://doi.org/10.1007/BF00202091"

_cell_length_a                   4.2166
_cell_length_b                   4.0206
_cell_length_c                   7.6423
_cell_angle_alpha                90.0000
_cell_angle_beta                 119.6668
_cell_angle_gamma                90.0000
_cell_formula_units_Z            4

_symmetry_space_group_name_Hall  'P -2yc'
_symmetry_Int_Tables_number      7
_symmetry_cell_setting           monoclinic

loop_
_atom_site_label
_atom_site_type_symbol
_atom_site_fract_x
_atom_site_fract_y
_atom_site_fract_z
Si1 Si  0.00000 0.49891 0.00000
Si2 Si  0.30231 0.10448 0.37836
O1  O   0.34155 0.26088 0.58341
O2  O   0.68329 0.20774 0.38310
O3  O   0.13105 0.27048 0.86496
O4  O   0.98917 0.30762 0.18536
